<?xml version="1.0" encoding="UTF-8"?>

<!-- generated on 10/13/18 23:07:24 by Eclipse SUMO GUI Version 1.0.1
<configuration xmlns:xsi="http://www.w3.org/2001/XMLSchema-instance" xsi:noNamespaceSchemaLocation="http://sumo.dlr.de/xsd/sumoConfiguration.xsd">

    <input>
        <net-file value="data/icacc+.net.xml"/>
        <route-files value="data/icacc+.rou.xml"/>
        <additional-files value="data/icacc+.det.xml"/>
    </input>

    <output>
        <tripinfo-output value="tripinfo.xml"/>
    </output>

    <time>
        <begin value="0"/>
    </time>

    <report>
        <verbose value="true"/>
        <no-step-log value="true"/>
    </report>

    <traci_server>
        <remote-port value="54875"/>
    </traci_server>

</configuration>
-->

<tripinfos xmlns:xsi="http://www.w3.org/2001/XMLSchema-instance" xsi:noNamespaceSchemaLocation="http://sumo.dlr.de/xsd/tripinfo_file.xsd">
    <tripinfo id="S_1" depart="0.00" departLane="o2_0" departPos="6.10" departSpeed="0.00" departDelay="0.00" arrival="26.00" arrivalLane="o-4_0" arrivalPos="100.00" arrivalSpeed="28.15" duration="26.00" routeLength="794.10" waitingTime="0.00" waitingCount="0" stopTime="0.00" timeLoss="-2.91" rerouteNo="0" devices="tripinfo_S_1" vType="carA" speedFactor="0.94" vaporized=""/>
    <tripinfo id="R_0" depart="0.00" departLane="o1_0" departPos="6.10" departSpeed="0.00" departDelay="0.00" arrival="28.00" arrivalLane="o-2_0" arrivalPos="100.00" arrivalSpeed="30.00" duration="28.00" routeLength="782.33" waitingTime="0.00" waitingCount="0" stopTime="0.00" timeLoss="1.52" rerouteNo="0" devices="tripinfo_R_0" vType="carA" speedFactor="1.06" vaporized=""/>
    <tripinfo id="L_2" depart="1.00" departLane="o1_0" departPos="6.10" departSpeed="0.00" departDelay="0.00" arrival="29.00" arrivalLane="o-4_1" arrivalPos="100.00" arrivalSpeed="30.00" duration="28.00" routeLength="797.81" waitingTime="0.00" waitingCount="0" stopTime="0.00" timeLoss="1.41" rerouteNo="0" devices="tripinfo_L_2" vType="carA" speedFactor="1.01" vaporized=""/>
    <tripinfo id="R_4" depart="1.00" departLane="o4_0" departPos="6.10" departSpeed="0.00" departDelay="0.00" arrival="29.00" arrivalLane="o-1_0" arrivalPos="100.00" arrivalSpeed="30.00" duration="28.00" routeLength="782.33" waitingTime="0.00" waitingCount="0" stopTime="0.00" timeLoss="1.27" rerouteNo="0" devices="tripinfo_R_4" vType="carA" speedFactor="1.03" vaporized=""/>
    <tripinfo id="R_3" depart="1.00" departLane="o2_0" departPos="6.10" departSpeed="0.00" departDelay="0.00" arrival="29.00" arrivalLane="o-3_0" arrivalPos="100.00" arrivalSpeed="30.00" duration="28.00" routeLength="782.33" waitingTime="0.00" waitingCount="0" stopTime="0.00" timeLoss="1.75" rerouteNo="0" devices="tripinfo_R_3" vType="carA" speedFactor="1.08" vaporized=""/>
    <tripinfo id="S_6" depart="3.00" departLane="o1_0" departPos="6.10" departSpeed="0.00" departDelay="0.00" arrival="31.00" arrivalLane="o-3_1" arrivalPos="100.00" arrivalSpeed="30.00" duration="28.00" routeLength="794.10" waitingTime="0.00" waitingCount="0" stopTime="0.00" timeLoss="1.27" rerouteNo="0" devices="tripinfo_S_6" vType="carA" speedFactor="1.05" vaporized=""/>
    <tripinfo id="R_8" depart="4.00" departLane="o2_0" departPos="6.10" departSpeed="0.00" departDelay="0.00" arrival="34.00" arrivalLane="o-3_0" arrivalPos="100.00" arrivalSpeed="28.14" duration="30.00" routeLength="782.33" waitingTime="0.00" waitingCount="0" stopTime="0.00" timeLoss="-1.76" rerouteNo="0" devices="tripinfo_R_8" vType="carA" speedFactor="0.94" vaporized=""/>
    <tripinfo id="L_5" depart="2.00" departLane="o3_0" departPos="6.10" departSpeed="0.00" departDelay="0.00" arrival="35.00" arrivalLane="o-2_0" arrivalPos="100.00" arrivalSpeed="24.93" duration="33.00" routeLength="797.81" waitingTime="0.00" waitingCount="0" stopTime="0.00" timeLoss="0.63" rerouteNo="0" devices="tripinfo_L_5" vType="carA" speedFactor="0.83" vaporized=""/>
    <tripinfo id="S_7" depart="3.00" departLane="o4_0" departPos="6.10" departSpeed="0.00" departDelay="0.00" arrival="36.00" arrivalLane="o-2_0" arrivalPos="100.00" arrivalSpeed="26.58" duration="33.00" routeLength="794.10" waitingTime="1.00" waitingCount="1" stopTime="0.00" timeLoss="2.94" rerouteNo="0" devices="tripinfo_S_7" vType="carA" speedFactor="0.89" vaporized=""/>
    <tripinfo id="R_11" depart="8.00" departLane="o2_0" departPos="6.10" departSpeed="0.00" departDelay="0.00" arrival="36.00" arrivalLane="o-3_0" arrivalPos="100.00" arrivalSpeed="30.00" duration="28.00" routeLength="782.33" waitingTime="0.00" waitingCount="0" stopTime="0.00" timeLoss="1.27" rerouteNo="0" devices="tripinfo_R_11" vType="carA" speedFactor="1.03" vaporized=""/>
    <tripinfo id="R_10" depart="8.00" departLane="o1_0" departPos="6.10" departSpeed="0.00" departDelay="0.00" arrival="37.00" arrivalLane="o-2_0" arrivalPos="100.00" arrivalSpeed="30.00" duration="29.00" routeLength="782.33" waitingTime="0.00" waitingCount="0" stopTime="0.00" timeLoss="2.84" rerouteNo="0" devices="tripinfo_R_10" vType="carA" speedFactor="1.09" vaporized=""/>
    <tripinfo id="R_13" depart="9.00" departLane="o2_0" departPos="6.10" departSpeed="0.00" departDelay="0.00" arrival="37.00" arrivalLane="o-3_0" arrivalPos="100.00" arrivalSpeed="30.00" duration="28.00" routeLength="782.33" waitingTime="0.00" waitingCount="0" stopTime="0.00" timeLoss="1.47" rerouteNo="0" devices="tripinfo_R_13" vType="carA" speedFactor="1.12" vaporized=""/>
    <tripinfo id="R_9" depart="7.00" departLane="o4_0" departPos="6.10" departSpeed="0.00" departDelay="0.00" arrival="39.00" arrivalLane="o-1_0" arrivalPos="100.00" arrivalSpeed="25.71" duration="32.00" routeLength="782.33" waitingTime="0.00" waitingCount="0" stopTime="0.00" timeLoss="-2.08" rerouteNo="0" devices="tripinfo_R_9" vType="carA" speedFactor="0.86" vaporized=""/>
    <tripinfo id="S_14" depart="10.00" departLane="o2_0" departPos="6.10" departSpeed="0.00" departDelay="0.00" arrival="39.00" arrivalLane="o-4_1" arrivalPos="100.00" arrivalSpeed="29.73" duration="29.00" routeLength="794.10" waitingTime="0.00" waitingCount="0" stopTime="0.00" timeLoss="1.59" rerouteNo="0" devices="tripinfo_S_14" vType="carA" speedFactor="0.99" vaporized=""/>
    <tripinfo id="L_12" depart="8.00" departLane="o3_0" departPos="6.10" departSpeed="0.00" departDelay="0.00" arrival="39.00" arrivalLane="o-2_0" arrivalPos="100.00" arrivalSpeed="30.00" duration="31.00" routeLength="797.81" waitingTime="0.00" waitingCount="0" stopTime="0.00" timeLoss="3.53" rerouteNo="0" devices="tripinfo_L_12" vType="carA" speedFactor="1.05" vaporized=""/>
    <tripinfo id="L_15" depart="10.00" departLane="o3_0" departPos="6.10" departSpeed="0.00" departDelay="0.00" arrival="42.00" arrivalLane="o-2_0" arrivalPos="100.00" arrivalSpeed="27.81" duration="32.00" routeLength="797.81" waitingTime="0.00" waitingCount="0" stopTime="0.00" timeLoss="0.52" rerouteNo="0" devices="tripinfo_L_15" vType="carA" speedFactor="0.93" vaporized=""/>
    <tripinfo id="R_17" depart="12.00" departLane="o3_0" departPos="6.10" departSpeed="0.00" departDelay="0.00" arrival="43.00" arrivalLane="o-4_0" arrivalPos="100.00" arrivalSpeed="28.24" duration="31.00" routeLength="782.33" waitingTime="0.00" waitingCount="0" stopTime="0.00" timeLoss="-0.43" rerouteNo="0" devices="tripinfo_R_17" vType="carA" speedFactor="0.94" vaporized=""/>
    <tripinfo id="R_16" depart="12.00" departLane="o2_0" departPos="6.10" departSpeed="0.00" departDelay="0.00" arrival="43.00" arrivalLane="o-3_0" arrivalPos="100.00" arrivalSpeed="26.35" duration="31.00" routeLength="782.33" waitingTime="0.00" waitingCount="0" stopTime="0.00" timeLoss="1.04" rerouteNo="0" devices="tripinfo_R_16" vType="carA" speedFactor="0.88" vaporized=""/>
    <tripinfo id="S_18" depart="12.00" departLane="o4_0" departPos="6.10" departSpeed="0.00" departDelay="0.00" arrival="43.00" arrivalLane="o-2_1" arrivalPos="100.00" arrivalSpeed="28.09" duration="31.00" routeLength="794.10" waitingTime="0.00" waitingCount="0" stopTime="0.00" timeLoss="2.03" rerouteNo="0" devices="tripinfo_S_18" vType="carA" speedFactor="0.94" vaporized=""/>
    <tripinfo id="L_19" depart="13.00" departLane="o2_0" departPos="6.10" departSpeed="0.00" departDelay="0.00" arrival="44.00" arrivalLane="o-1_1" arrivalPos="100.00" arrivalSpeed="30.00" duration="31.00" routeLength="797.81" waitingTime="1.00" waitingCount="1" stopTime="0.00" timeLoss="2.56" rerouteNo="0" devices="tripinfo_L_19" vType="carA" speedFactor="1.16" vaporized=""/>
    <tripinfo id="L_21" depart="14.00" departLane="o4_0" departPos="6.10" departSpeed="0.00" departDelay="0.00" arrival="44.00" arrivalLane="o-3_1" arrivalPos="100.00" arrivalSpeed="30.00" duration="30.00" routeLength="797.81" waitingTime="0.00" waitingCount="0" stopTime="0.00" timeLoss="2.48" rerouteNo="0" devices="tripinfo_L_21" vType="carA" speedFactor="1.01" vaporized=""/>
    <tripinfo id="R_20" depart="14.00" departLane="o2_0" departPos="6.10" departSpeed="0.00" departDelay="0.00" arrival="44.00" arrivalLane="o-3_0" arrivalPos="100.00" arrivalSpeed="30.00" duration="30.00" routeLength="782.33" waitingTime="0.00" waitingCount="0" stopTime="0.00" timeLoss="0.32" rerouteNo="0" devices="tripinfo_R_20" vType="carA" speedFactor="1.02" vaporized=""/>
    <tripinfo id="S_22" depart="15.00" departLane="o3_0" departPos="6.10" departSpeed="0.00" departDelay="0.00" arrival="45.00" arrivalLane="o-1_0" arrivalPos="100.00" arrivalSpeed="29.25" duration="30.00" routeLength="794.10" waitingTime="0.00" waitingCount="0" stopTime="0.00" timeLoss="2.56" rerouteNo="0" devices="tripinfo_S_22" vType="carA" speedFactor="0.98" vaporized=""/>
    <tripinfo id="R_23" depart="16.00" departLane="o1_0" departPos="6.10" departSpeed="0.00" departDelay="0.00" arrival="47.00" arrivalLane="o-2_0" arrivalPos="100.00" arrivalSpeed="26.69" duration="31.00" routeLength="782.33" waitingTime="0.00" waitingCount="0" stopTime="0.00" timeLoss="0.88" rerouteNo="0" devices="tripinfo_R_23" vType="carA" speedFactor="0.89" vaporized=""/>
    <tripinfo id="S_26" depart="18.00" departLane="o2_0" departPos="6.10" departSpeed="0.00" departDelay="0.00" arrival="49.00" arrivalLane="o-4_0" arrivalPos="100.00" arrivalSpeed="27.52" duration="31.00" routeLength="794.10" waitingTime="0.00" waitingCount="0" stopTime="0.00" timeLoss="1.85" rerouteNo="0" devices="tripinfo_S_26" vType="carA" speedFactor="0.92" vaporized=""/>
    <tripinfo id="L_24" depart="16.00" departLane="o2_0" departPos="6.10" departSpeed="0.00" departDelay="0.00" arrival="50.00" arrivalLane="o-1_0" arrivalPos="100.00" arrivalSpeed="24.77" duration="34.00" routeLength="797.81" waitingTime="0.00" waitingCount="0" stopTime="0.00" timeLoss="-0.64" rerouteNo="0" devices="tripinfo_L_24" vType="carA" speedFactor="0.83" vaporized=""/>
    <tripinfo id="L_25" depart="17.00" departLane="o1_0" departPos="6.10" departSpeed="0.00" departDelay="0.00" arrival="50.00" arrivalLane="o-4_1" arrivalPos="100.00" arrivalSpeed="26.18" duration="33.00" routeLength="797.81" waitingTime="0.00" waitingCount="0" stopTime="0.00" timeLoss="-0.60" rerouteNo="0" devices="tripinfo_L_25" vType="carA" speedFactor="0.87" vaporized=""/>
    <tripinfo id="S_30" depart="20.00" departLane="o3_0" departPos="6.10" departSpeed="0.00" departDelay="0.00" arrival="51.00" arrivalLane="o-1_0" arrivalPos="100.00" arrivalSpeed="30.00" duration="31.00" routeLength="794.10" waitingTime="1.00" waitingCount="1" stopTime="0.00" timeLoss="4.11" rerouteNo="0" devices="tripinfo_S_30" vType="carA" speedFactor="1.18" vaporized=""/>
    <tripinfo id="L_27" depart="19.00" departLane="o1_0" departPos="6.10" departSpeed="0.00" departDelay="0.00" arrival="51.00" arrivalLane="o-4_1" arrivalPos="100.00" arrivalSpeed="28.47" duration="32.00" routeLength="797.81" waitingTime="0.00" waitingCount="0" stopTime="0.00" timeLoss="1.23" rerouteNo="0" devices="tripinfo_L_27" vType="carA" speedFactor="0.95" vaporized=""/>
    <tripinfo id="L_31" depart="21.00" departLane="o1_0" departPos="6.10" departSpeed="0.00" departDelay="0.00" arrival="52.00" arrivalLane="o-4_1" arrivalPos="100.00" arrivalSpeed="30.00" duration="31.00" routeLength="797.81" waitingTime="1.00" waitingCount="1" stopTime="0.00" timeLoss="3.69" rerouteNo="0" devices="tripinfo_L_31" vType="carA" speedFactor="1.15" vaporized=""/>
    <tripinfo id="S_34" depart="22.00" departLane="o4_0" departPos="6.10" departSpeed="0.00" departDelay="0.00" arrival="53.00" arrivalLane="o-2_1" arrivalPos="100.00" arrivalSpeed="29.85" duration="31.00" routeLength="794.10" waitingTime="1.00" waitingCount="1" stopTime="0.00" timeLoss="3.90" rerouteNo="0" devices="tripinfo_S_34" vType="carA" speedFactor="0.99" vaporized=""/>
    <tripinfo id="R_33" depart="22.00" departLane="o3_0" departPos="6.10" departSpeed="0.00" departDelay="0.00" arrival="53.00" arrivalLane="o-4_0" arrivalPos="100.00" arrivalSpeed="30.00" duration="31.00" routeLength="782.33" waitingTime="0.00" waitingCount="0" stopTime="0.00" timeLoss="3.14" rerouteNo="0" devices="tripinfo_R_33" vType="carA" speedFactor="1.17" vaporized=""/>
    <tripinfo id="L_40" depart="26.00" departLane="o1_0" departPos="6.10" departSpeed="0.00" departDelay="0.00" arrival="54.00" arrivalLane="o-4_1" arrivalPos="100.00" arrivalSpeed="30.00" duration="28.00" routeLength="797.81" waitingTime="0.00" waitingCount="0" stopTime="0.00" timeLoss="1.41" rerouteNo="0" devices="tripinfo_L_40" vType="carA" speedFactor="1.03" vaporized=""/>
    <tripinfo id="R_42" depart="27.00" departLane="o4_0" departPos="6.10" departSpeed="0.00" departDelay="0.00" arrival="55.00" arrivalLane="o-1_0" arrivalPos="100.00" arrivalSpeed="30.00" duration="28.00" routeLength="782.33" waitingTime="0.00" waitingCount="0" stopTime="0.00" timeLoss="1.27" rerouteNo="0" devices="tripinfo_R_42" vType="carA" speedFactor="1.09" vaporized=""/>
    <tripinfo id="L_38" depart="25.00" departLane="o1_0" departPos="6.10" departSpeed="0.00" departDelay="0.00" arrival="55.00" arrivalLane="o-4_0" arrivalPos="100.00" arrivalSpeed="30.00" duration="30.00" routeLength="797.81" waitingTime="0.00" waitingCount="0" stopTime="0.00" timeLoss="2.08" rerouteNo="0" devices="tripinfo_L_38" vType="carA" speedFactor="1.10" vaporized=""/>
    <tripinfo id="L_44" depart="28.00" departLane="o4_0" departPos="6.10" departSpeed="0.00" departDelay="0.00" arrival="56.00" arrivalLane="o-3_1" arrivalPos="100.00" arrivalSpeed="30.00" duration="28.00" routeLength="797.81" waitingTime="0.00" waitingCount="0" stopTime="0.00" timeLoss="1.41" rerouteNo="0" devices="tripinfo_L_44" vType="carA" speedFactor="1.04" vaporized=""/>
    <tripinfo id="L_28" depart="19.00" departLane="o2_0" departPos="6.10" departSpeed="0.00" departDelay="0.00" arrival="56.00" arrivalLane="o-1_1" arrivalPos="100.00" arrivalSpeed="30.00" duration="37.00" routeLength="797.81" waitingTime="7.00" waitingCount="1" stopTime="0.00" timeLoss="8.37" rerouteNo="0" devices="tripinfo_L_28" vType="carA" speedFactor="1.13" vaporized=""/>
    <tripinfo id="S_45" depart="29.00" departLane="o1_0" departPos="6.10" departSpeed="0.00" departDelay="0.00" arrival="58.00" arrivalLane="o-3_1" arrivalPos="100.00" arrivalSpeed="30.00" duration="29.00" routeLength="794.10" waitingTime="0.00" waitingCount="0" stopTime="0.00" timeLoss="1.96" rerouteNo="0" devices="tripinfo_S_45" vType="carA" speedFactor="1.09" vaporized=""/>
    <tripinfo id="L_29" depart="20.00" departLane="o2_0" departPos="6.10" departSpeed="0.00" departDelay="0.00" arrival="59.00" arrivalLane="o-1_0" arrivalPos="100.00" arrivalSpeed="27.94" duration="39.00" routeLength="797.81" waitingTime="5.00" waitingCount="1" stopTime="0.00" timeLoss="8.24" rerouteNo="0" devices="tripinfo_L_29" vType="carA" speedFactor="0.93" vaporized=""/>
    <tripinfo id="L_36" depart="24.00" departLane="o2_0" departPos="6.10" departSpeed="0.00" departDelay="0.00" arrival="59.00" arrivalLane="o-1_1" arrivalPos="100.00" arrivalSpeed="29.20" duration="35.00" routeLength="797.81" waitingTime="2.00" waitingCount="2" stopTime="0.00" timeLoss="5.36" rerouteNo="0" devices="tripinfo_L_36" vType="carA" speedFactor="0.97" vaporized=""/>
    <tripinfo id="R_47" depart="30.00" departLane="o1_0" departPos="6.10" departSpeed="0.00" departDelay="0.00" arrival="60.00" arrivalLane="o-2_0" arrivalPos="100.00" arrivalSpeed="27.02" duration="30.00" routeLength="782.33" waitingTime="0.00" waitingCount="0" stopTime="0.00" timeLoss="1.00" rerouteNo="0" devices="tripinfo_R_47" vType="carA" speedFactor="0.90" vaporized=""/>
    <tripinfo id="S_37" depart="24.00" departLane="o3_0" departPos="6.10" departSpeed="0.00" departDelay="0.00" arrival="60.00" arrivalLane="o-1_0" arrivalPos="100.00" arrivalSpeed="30.00" duration="36.00" routeLength="794.10" waitingTime="3.00" waitingCount="1" stopTime="0.00" timeLoss="9.30" rerouteNo="0" devices="tripinfo_S_37" vType="carA" speedFactor="1.18" vaporized=""/>
    <tripinfo id="S_32" depart="21.00" departLane="o3_0" departPos="6.10" departSpeed="0.00" departDelay="0.00" arrival="60.00" arrivalLane="o-1_1" arrivalPos="100.00" arrivalSpeed="30.00" duration="39.00" routeLength="794.10" waitingTime="8.00" waitingCount="1" stopTime="0.00" timeLoss="11.78" rerouteNo="0" devices="tripinfo_S_32" vType="carA" speedFactor="1.01" vaporized=""/>
    <tripinfo id="R_43" depart="28.00" departLane="o3_0" departPos="6.10" departSpeed="0.00" departDelay="0.00" arrival="61.00" arrivalLane="o-4_0" arrivalPos="100.00" arrivalSpeed="30.00" duration="33.00" routeLength="782.33" waitingTime="1.00" waitingCount="1" stopTime="0.00" timeLoss="5.80" rerouteNo="0" devices="tripinfo_R_43" vType="carA" speedFactor="1.04" vaporized=""/>
    <tripinfo id="R_35" depart="23.00" departLane="o3_0" departPos="6.10" departSpeed="0.00" departDelay="0.00" arrival="61.00" arrivalLane="o-4_1" arrivalPos="100.00" arrivalSpeed="30.00" duration="38.00" routeLength="782.33" waitingTime="8.00" waitingCount="2" stopTime="0.00" timeLoss="10.58" rerouteNo="0" devices="tripinfo_R_35" vType="carA" speedFactor="1.02" vaporized=""/>
    <tripinfo id="S_39" depart="26.00" departLane="o3_0" departPos="6.10" departSpeed="0.00" departDelay="1.00" arrival="62.00" arrivalLane="o-1_0" arrivalPos="100.00" arrivalSpeed="27.02" duration="36.00" routeLength="794.10" waitingTime="2.00" waitingCount="2" stopTime="0.00" timeLoss="6.13" rerouteNo="0" devices="tripinfo_S_39" vType="carA" speedFactor="0.90" vaporized=""/>
    <tripinfo id="R_51" depart="34.00" departLane="o4_0" departPos="6.10" departSpeed="0.00" departDelay="0.00" arrival="63.00" arrivalLane="o-1_0" arrivalPos="100.00" arrivalSpeed="30.00" duration="29.00" routeLength="782.33" waitingTime="0.00" waitingCount="0" stopTime="0.00" timeLoss="2.59" rerouteNo="0" devices="tripinfo_R_51" vType="carA" speedFactor="1.17" vaporized=""/>
    <tripinfo id="R_41" depart="27.00" departLane="o3_0" departPos="6.10" departSpeed="0.00" departDelay="1.00" arrival="64.00" arrivalLane="o-4_1" arrivalPos="100.00" arrivalSpeed="28.71" duration="37.00" routeLength="782.33" waitingTime="5.00" waitingCount="2" stopTime="0.00" timeLoss="7.13" rerouteNo="0" devices="tripinfo_R_41" vType="carA" speedFactor="0.96" vaporized=""/>
    <tripinfo id="S_52" depart="36.00" departLane="o1_0" departPos="6.10" departSpeed="0.00" departDelay="0.00" arrival="65.00" arrivalLane="o-3_1" arrivalPos="100.00" arrivalSpeed="30.00" duration="29.00" routeLength="794.10" waitingTime="0.00" waitingCount="0" stopTime="0.00" timeLoss="1.96" rerouteNo="0" devices="tripinfo_S_52" vType="carA" speedFactor="1.02" vaporized=""/>
    <tripinfo id="R_48" depart="31.00" departLane="o3_0" departPos="6.10" departSpeed="0.00" departDelay="0.00" arrival="65.00" arrivalLane="o-4_0" arrivalPos="100.00" arrivalSpeed="26.31" duration="34.00" routeLength="782.33" waitingTime="2.00" waitingCount="2" stopTime="0.00" timeLoss="3.55" rerouteNo="0" devices="tripinfo_R_48" vType="carA" speedFactor="0.88" vaporized=""/>
    <tripinfo id="R_46" depart="29.00" departLane="o3_0" departPos="6.10" departSpeed="0.00" departDelay="0.00" arrival="65.00" arrivalLane="o-4_1" arrivalPos="100.00" arrivalSpeed="29.92" duration="36.00" routeLength="782.33" waitingTime="4.00" waitingCount="2" stopTime="0.00" timeLoss="8.17" rerouteNo="0" devices="tripinfo_R_46" vType="carA" speedFactor="1.00" vaporized=""/>
    <tripinfo id="L_49" depart="33.00" departLane="o2_0" departPos="6.10" departSpeed="0.00" departDelay="0.00" arrival="67.00" arrivalLane="o-1_1" arrivalPos="100.00" arrivalSpeed="25.51" duration="34.00" routeLength="797.81" waitingTime="0.00" waitingCount="0" stopTime="0.00" timeLoss="-0.83" rerouteNo="0" devices="tripinfo_L_49" vType="carA" speedFactor="0.85" vaporized=""/>
    <tripinfo id="R_50" depart="34.00" departLane="o1_0" departPos="6.10" departSpeed="0.00" departDelay="0.00" arrival="67.00" arrivalLane="o-2_0" arrivalPos="100.00" arrivalSpeed="25.65" duration="33.00" routeLength="782.33" waitingTime="0.00" waitingCount="0" stopTime="0.00" timeLoss="-1.95" rerouteNo="0" devices="tripinfo_R_50" vType="carA" speedFactor="0.85" vaporized=""/>
    <tripinfo id="L_54" depart="37.00" departLane="o3_0" departPos="6.10" departSpeed="0.00" departDelay="0.00" arrival="68.00" arrivalLane="o-2_1" arrivalPos="100.00" arrivalSpeed="30.00" duration="31.00" routeLength="797.81" waitingTime="1.00" waitingCount="1" stopTime="0.00" timeLoss="3.20" rerouteNo="0" devices="tripinfo_L_54" vType="carA" speedFactor="1.00" vaporized=""/>
    <tripinfo id="L_53" depart="37.00" departLane="o2_0" departPos="6.10" departSpeed="0.00" departDelay="0.00" arrival="68.00" arrivalLane="o-1_1" arrivalPos="100.00" arrivalSpeed="30.00" duration="31.00" routeLength="797.81" waitingTime="0.00" waitingCount="0" stopTime="0.00" timeLoss="2.70" rerouteNo="0" devices="tripinfo_L_53" vType="carA" speedFactor="1.10" vaporized=""/>
    <tripinfo id="S_56" depart="38.00" departLane="o2_0" departPos="6.10" departSpeed="0.00" departDelay="0.00" arrival="70.00" arrivalLane="o-4_0" arrivalPos="100.00" arrivalSpeed="26.97" duration="32.00" routeLength="794.10" waitingTime="0.00" waitingCount="0" stopTime="0.00" timeLoss="2.42" rerouteNo="0" devices="tripinfo_S_56" vType="carA" speedFactor="0.90" vaporized=""/>
    <tripinfo id="R_57" depart="40.00" departLane="o1_0" departPos="6.10" departSpeed="0.00" departDelay="0.00" arrival="70.00" arrivalLane="o-2_1" arrivalPos="100.00" arrivalSpeed="30.00" duration="30.00" routeLength="782.33" waitingTime="0.00" waitingCount="0" stopTime="0.00" timeLoss="2.31" rerouteNo="0" devices="tripinfo_R_57" vType="carA" speedFactor="1.14" vaporized=""/>
    <tripinfo id="L_58" depart="41.00" departLane="o2_0" departPos="6.10" departSpeed="0.00" departDelay="0.00" arrival="71.00" arrivalLane="o-1_0" arrivalPos="100.00" arrivalSpeed="30.00" duration="30.00" routeLength="797.81" waitingTime="0.00" waitingCount="0" stopTime="0.00" timeLoss="2.44" rerouteNo="0" devices="tripinfo_L_58" vType="carA" speedFactor="1.02" vaporized=""/>
    <tripinfo id="S_59" depart="42.00" departLane="o1_0" departPos="6.10" departSpeed="0.00" departDelay="0.00" arrival="72.00" arrivalLane="o-3_1" arrivalPos="100.00" arrivalSpeed="29.09" duration="30.00" routeLength="794.10" waitingTime="0.00" waitingCount="0" stopTime="0.00" timeLoss="2.51" rerouteNo="0" devices="tripinfo_S_59" vType="carA" speedFactor="0.97" vaporized=""/>
    <tripinfo id="L_55" depart="37.00" departLane="o4_0" departPos="6.10" departSpeed="0.00" departDelay="0.00" arrival="72.00" arrivalLane="o-3_0" arrivalPos="100.00" arrivalSpeed="29.88" duration="35.00" routeLength="797.81" waitingTime="4.00" waitingCount="1" stopTime="0.00" timeLoss="6.03" rerouteNo="0" devices="tripinfo_L_55" vType="carA" speedFactor="1.00" vaporized=""/>
    <tripinfo id="R_61" depart="43.00" departLane="o1_0" departPos="6.10" departSpeed="0.00" departDelay="0.00" arrival="73.00" arrivalLane="o-2_0" arrivalPos="100.00" arrivalSpeed="30.00" duration="30.00" routeLength="782.33" waitingTime="0.00" waitingCount="0" stopTime="0.00" timeLoss="0.86" rerouteNo="0" devices="tripinfo_R_61" vType="carA" speedFactor="1.12" vaporized=""/>
    <tripinfo id="R_60" depart="42.00" departLane="o2_0" departPos="6.10" departSpeed="0.00" departDelay="0.00" arrival="73.00" arrivalLane="o-3_0" arrivalPos="100.00" arrivalSpeed="30.00" duration="31.00" routeLength="782.33" waitingTime="0.00" waitingCount="0" stopTime="0.00" timeLoss="4.45" rerouteNo="0" devices="tripinfo_R_60" vType="carA" speedFactor="1.08" vaporized=""/>
    <tripinfo id="L_62" depart="43.00" departLane="o3_0" departPos="6.10" departSpeed="0.00" departDelay="0.00" arrival="74.00" arrivalLane="o-2_1" arrivalPos="100.00" arrivalSpeed="30.00" duration="31.00" routeLength="797.81" waitingTime="0.00" waitingCount="0" stopTime="0.00" timeLoss="2.90" rerouteNo="0" devices="tripinfo_L_62" vType="carA" speedFactor="1.02" vaporized=""/>
    <tripinfo id="S_63" depart="45.00" departLane="o1_0" departPos="6.10" departSpeed="0.00" departDelay="0.00" arrival="74.00" arrivalLane="o-3_1" arrivalPos="100.00" arrivalSpeed="29.61" duration="29.00" routeLength="794.10" waitingTime="0.00" waitingCount="0" stopTime="0.00" timeLoss="1.70" rerouteNo="0" devices="tripinfo_S_63" vType="carA" speedFactor="0.99" vaporized=""/>
    <tripinfo id="S_68" depart="47.00" departLane="o2_0" departPos="6.10" departSpeed="0.00" departDelay="0.00" arrival="76.00" arrivalLane="o-4_1" arrivalPos="100.00" arrivalSpeed="30.00" duration="29.00" routeLength="794.10" waitingTime="0.00" waitingCount="0" stopTime="0.00" timeLoss="2.23" rerouteNo="0" devices="tripinfo_S_68" vType="carA" speedFactor="1.04" vaporized=""/>
    <tripinfo id="R_65" depart="45.00" departLane="o4_0" departPos="6.10" departSpeed="0.00" departDelay="0.00" arrival="76.00" arrivalLane="o-1_0" arrivalPos="100.00" arrivalSpeed="26.47" duration="31.00" routeLength="782.33" waitingTime="0.00" waitingCount="0" stopTime="0.00" timeLoss="0.98" rerouteNo="0" devices="tripinfo_R_65" vType="carA" speedFactor="0.88" vaporized=""/>
    <tripinfo id="S_69" depart="48.00" departLane="o2_0" departPos="6.10" departSpeed="0.00" departDelay="0.00" arrival="77.00" arrivalLane="o-4_0" arrivalPos="100.00" arrivalSpeed="30.00" duration="29.00" routeLength="794.10" waitingTime="0.00" waitingCount="0" stopTime="0.00" timeLoss="2.44" rerouteNo="0" devices="tripinfo_S_69" vType="carA" speedFactor="1.02" vaporized=""/>
    <tripinfo id="L_64" depart="45.00" departLane="o2_0" departPos="6.10" departSpeed="0.00" departDelay="0.00" arrival="77.00" arrivalLane="o-1_1" arrivalPos="100.00" arrivalSpeed="28.13" duration="32.00" routeLength="797.81" waitingTime="1.00" waitingCount="1" stopTime="0.00" timeLoss="0.88" rerouteNo="0" devices="tripinfo_L_64" vType="carA" speedFactor="0.94" vaporized=""/>
    <tripinfo id="R_67" depart="47.00" departLane="o1_0" departPos="6.10" departSpeed="0.00" departDelay="0.00" arrival="77.00" arrivalLane="o-2_0" arrivalPos="100.00" arrivalSpeed="27.44" duration="30.00" routeLength="782.33" waitingTime="0.00" waitingCount="0" stopTime="0.00" timeLoss="1.17" rerouteNo="0" devices="tripinfo_R_67" vType="carA" speedFactor="0.91" vaporized=""/>
    <tripinfo id="L_71" depart="49.00" departLane="o4_0" departPos="6.10" departSpeed="0.00" departDelay="0.00" arrival="79.00" arrivalLane="o-3_0" arrivalPos="100.00" arrivalSpeed="29.19" duration="30.00" routeLength="797.81" waitingTime="0.00" waitingCount="0" stopTime="0.00" timeLoss="-0.06" rerouteNo="0" devices="tripinfo_L_71" vType="carA" speedFactor="0.97" vaporized=""/>
    <tripinfo id="L_66" depart="46.00" departLane="o2_0" departPos="6.10" departSpeed="0.00" departDelay="0.00" arrival="79.00" arrivalLane="o-1_0" arrivalPos="100.00" arrivalSpeed="27.20" duration="33.00" routeLength="797.81" waitingTime="1.00" waitingCount="1" stopTime="0.00" timeLoss="2.92" rerouteNo="0" devices="tripinfo_L_66" vType="carA" speedFactor="0.91" vaporized=""/>
    <tripinfo id="L_73" depart="50.00" departLane="o3_0" departPos="6.10" departSpeed="0.00" departDelay="0.00" arrival="80.00" arrivalLane="o-2_1" arrivalPos="100.00" arrivalSpeed="30.00" duration="30.00" routeLength="797.81" waitingTime="0.00" waitingCount="0" stopTime="0.00" timeLoss="1.57" rerouteNo="0" devices="tripinfo_L_73" vType="carA" speedFactor="1.06" vaporized=""/>
    <tripinfo id="S_70" depart="49.00" departLane="o3_0" departPos="6.10" departSpeed="0.00" departDelay="0.00" arrival="80.00" arrivalLane="o-1_0" arrivalPos="100.00" arrivalSpeed="30.00" duration="31.00" routeLength="794.10" waitingTime="1.00" waitingCount="1" stopTime="0.00" timeLoss="3.96" rerouteNo="0" devices="tripinfo_S_70" vType="carA" speedFactor="1.02" vaporized=""/>
    <tripinfo id="L_76" depart="51.00" departLane="o3_0" departPos="6.10" departSpeed="0.00" departDelay="0.00" arrival="81.00" arrivalLane="o-2_0" arrivalPos="100.00" arrivalSpeed="30.00" duration="30.00" routeLength="797.81" waitingTime="0.00" waitingCount="0" stopTime="0.00" timeLoss="1.24" rerouteNo="0" devices="tripinfo_L_76" vType="carA" speedFactor="1.03" vaporized=""/>
    <tripinfo id="R_72" depart="50.00" departLane="o2_0" departPos="6.10" departSpeed="0.00" departDelay="0.00" arrival="81.00" arrivalLane="o-3_0" arrivalPos="100.00" arrivalSpeed="28.20" duration="31.00" routeLength="782.33" waitingTime="0.00" waitingCount="0" stopTime="0.00" timeLoss="1.69" rerouteNo="0" devices="tripinfo_R_72" vType="carA" speedFactor="0.94" vaporized=""/>
    <tripinfo id="R_78" depart="52.00" departLane="o3_0" departPos="6.10" departSpeed="0.00" departDelay="0.00" arrival="82.00" arrivalLane="o-4_1" arrivalPos="100.00" arrivalSpeed="30.00" duration="30.00" routeLength="782.33" waitingTime="0.00" waitingCount="0" stopTime="0.00" timeLoss="0.98" rerouteNo="0" devices="tripinfo_R_78" vType="carA" speedFactor="1.01" vaporized=""/>